256
8

1
  0.0080825286605076   0.0058883554964076   -0.000000000000000  
  -0.03896792   -0.02293569   -0.00441819  
  0.00086047   -0.00003866   0.00035039  
  -0.00049407   0.00375470   -0.00107689  
  0.00061514   0.00003232   0.00043682  
  0.00023605   0.00062704   0.00045580  
  0.00053587   0.00004927   0.00042675  
  -0.00025703   0.00344908   0.00124382  
  0.00065489   -0.00002296   0.00041380  
  -0.00011360   -0.00218681   0.00061880  
  0.00062393   -0.00002994   0.00044090  
  0.00051280   0.00136022   0.00260979  
  0.00057646   0.00002412   0.00047653  
  0.00017466   0.00060949   0.00032631  
  0.00053696   0.00003245   0.00043077  
  0.00048548   0.00173216   -0.00179541  
  0.00059050   -0.00001835   0.00040464  
  0.00031160   -0.00002051   0.00039789  
  0.00053244   0.00000564   0.00042056  
  0.00025203   -0.00019681   0.00038384  
  0.00054043   -0.00000279   0.00041808  
  0.00019014   0.00058498   0.00042832  
  0.00055125   0.00000742   0.00040218  
  0.00022300   -0.00015632   0.00040222  
  0.00054562   -0.00001789   0.00041805  
  -0.00011466   -0.00218302   0.00043019  
  0.00062135   -0.00002754   0.00042131  
  0.00063007   0.00152788   -0.00041466  
  0.00056718   0.00000435   0.00037444  
  0.00016593   0.00060985   0.00040940  
  0.00053666   0.00003586   0.00041043  
  0.00036409   0.00156243   0.00140084  
  0.00059945   -0.00000236   0.00041356  
  -0.00017232   0.00007722   -0.00033000  
  -0.00209313   -0.00150194   -0.00100175  
  -0.00029072   0.00006151   -0.00038626  
  -0.00072358   0.00018266   -0.00053611  
  -0.00032870   0.00000668   -0.00038438  
  -0.00043039   0.00058236   -0.00069385  
  -0.00030235   -0.00009611   -0.00034065  
  -0.00023078   0.00103236   -0.00191826  
  -0.00030829   -0.00000369   -0.00040717  
  -0.00052902   -0.00009327   -0.00037523  
  -0.00026021   0.00000047   -0.00042470  
  -0.00051788   0.00008961   -0.00031059  
  -0.00024691   0.00001579   -0.00046244  
  -0.00053331   0.00006345   -0.00047534  
  -0.00031559   -0.00001069   -0.00044207  
  -0.00051761   -0.00007530   -0.00048802  
  -0.00019984   -0.00000766   -0.00047942  
  -0.00064290   -0.00024365   -0.00009588  
  -0.00028006   -0.00001659   -0.00042280  
  -0.00061937   0.00006486   -0.00034925  
  -0.00027285   -0.00000767   -0.00041208  
  -0.00040132   0.00036114   -0.00000768  
  -0.00015696   0.00004011   -0.00044428  
  -0.00057235   -0.00015856   -0.00009556  
  0.00009926   -0.00001630   -0.00054616  
  0.00054839   -0.00284422   0.00077448  
  -0.00027105   0.00006506   -0.00041135  
  -0.00077165   0.00012178   -0.00063589  
  -0.00034198   -0.00002782   -0.00036206  
  -0.00038612   0.00064215   -0.00060187  
  0.00009025   -0.00003678   -0.00048732  
  0.00544566   0.00392782   0.00272740  
  0.00293302   0.00239174   0.00400196  
  -0.00011665   -0.00029185   0.00029506  
  -0.00034135   0.00049170   0.00049004  
  -0.00033537   0.00001546   0.00042088  
  -0.00073767   0.00015052   0.00056806  
  -0.00026830   0.00011457   0.00039469  
  -0.00356415   -0.00284555   0.00260947  
  0.00004090   0.00016601   0.00025383  
  -0.00050517   -0.00001256   0.00058997  
  -0.00032505   -0.00001718   0.00037013  
  -0.00024564   0.00028008   0.00080691  
  -0.00030598   0.00000869   0.00038851  
  -0.00075262   0.00004545   0.00025623  
  -0.00029261   0.00004623   0.00032766  
  -0.00054424   -0.00012426   0.00046287  
  -0.00029174   -0.00002233   0.00032807  
  -0.00048237   -0.00003722   0.00009311  
  -0.00030365   -0.00003704   0.00042434  
  -0.00040961   0.00051110   0.00002512  
  -0.00031269   0.00001349   0.00038688  
  -0.00058684   -0.00019392   0.00025232  
  -0.00027915   0.00003641   0.00044147  
  -0.00055798   -0.00009832   0.00021199  
  -0.00030750   -0.00000562   0.00043745  
  0.00160512   0.00422651   -0.00327141  
  -0.00020373   -0.00016231   0.00049934  
  -0.00041571   0.00059363   0.00008460  
  -0.00034054   0.00001635   0.00040898  
  -0.00066365   0.00005377   0.00039226  
  -0.00026584   0.00011517   0.00045214  
  -0.00222463   -0.00469199   -0.00328056  
  0.00012578   0.00003819   0.00067249  
  0.00251263   -0.00025180   0.00094800  
  0.00249968   -0.00025128   0.00035111  
  0.00079588   0.00036840   -0.00034364  
  0.00033850   -0.00024019   -0.00060168  
  0.00044349   0.00012376   -0.00036080  
  0.00043181   0.00012380   -0.00043637  
  0.00028188   -0.00014157   -0.00021702  
  0.00070910   0.00046403   -0.00067510  
  0.00047633   -0.00010533   -0.00032409  
  0.00046236   -0.00010826   -0.00057979  
  0.00051200   0.00005703   -0.00033807  
  0.00034539   -0.00015876   -0.00048170  
  0.00045090   0.00008424   -0.00046851  
  0.00043630   0.00008634   -0.00039607  
  0.00029273   -0.00006195   -0.00050614  
  0.00043193   0.00014818   -0.00054146  
  0.00044345   0.00001514   -0.00049330  
  0.00042611   0.00001567   -0.00036165  
  0.00046589   -0.00001456   -0.00048431  
  0.00048062   0.00001819   -0.00034912  
  0.00050598   0.00001206   -0.00048076  
  0.00049855   0.00001116   -0.00035627  
  0.00051097   -0.00001209   -0.00054555  
  0.00047173   -0.00004825   -0.00035758  
  0.00102549   -0.00005668   -0.00103684  
  0.00100942   -0.00005948   -0.00009856  
  0.00085229   0.00032674   -0.00059491  
  0.00053814   -0.00008924   -0.00039304  
  0.00048971   0.00008705   -0.00037663  
  0.00047472   0.00009028   -0.00045412  
  0.00072311   -0.00032242   -0.00051215  
  0.00100655   0.00008562   -0.00014861  
  -0.00231281   -0.00004590   0.00030156  
  -0.00200380   0.00002535   -0.00055263  
  -0.00160669   -0.00003509   0.00026909  
  -0.00100204   0.00024019   0.00051816  
  -0.00142975   -0.00001935   0.00032951  
  -0.00135334   -0.00024647   0.00039433  
  -0.00140678   0.00007510   0.00031117  
  -0.00136477   -0.00073004   0.00099462  
  -0.00147311   0.00005805   0.00032490  
  -0.00132776   0.00023572   0.00039878  
  -0.00145666   -0.00001049   0.00032256  
  -0.00111422   -0.00002836   0.00018689  
  -0.00144670   -0.00001265   0.00039427  
  -0.00135691   -0.00006187   0.00042152  
  -0.00135458   -0.00001667   0.00035975  
  -0.00142417   -0.00012232   0.00058610  
  -0.00143821   -0.00000450   0.00036428  
  -0.00133527   0.00008293   0.00030916  
  -0.00144153   -0.00001892   0.00037542  
  -0.00138886   0.00003860   0.00020159  
  -0.00149586   -0.00000608   0.00031670  
  -0.00139884   -0.00012949   0.00016164  
  -0.00150455   0.00003594   0.00038271  
  -0.00139627   0.00002954   0.00025729  
  -0.00168529   0.00000446   0.00032071  
  -0.00140155   0.00070591   0.00016512  
  -0.00165589   -0.00003123   0.00035067  
  -0.00139630   0.00049158   -0.00013468  
  -0.00146278   -0.00003150   0.00033327  
  -0.00136451   -0.00027898   0.00030757  
  -0.00167034   0.00007366   0.00039530  
  -0.00205512   -0.00117587   -0.00069554  
  0.00395986   0.00854509   0.00766700  
  0.00108121   -0.00003756   -0.00038422  
  0.00141537   -0.00059657   -0.00038835  
  0.00127707   -0.00003307   -0.00037139  
  0.00165335   -0.00079598   -0.00013296  
  0.00124129   -0.00001202   -0.00035808  
  0.00342550   0.00513673   -0.00396348  
  0.00116824   0.00005155   -0.00040779  
  0.00160124   0.00049785   -0.00013062  
  0.00127515   0.00001591   -0.00035226  
  0.00118746   -0.00096777   -0.00099371  
  0.00126184   -0.00001348   -0.00035063  
  0.00185219   -0.00081407   0.00019540  
  0.00124619   -0.00002542   -0.00034604  
  0.00141135   0.00042143   -0.00047517  
  0.00126513   0.00001500   -0.00036458  
  0.00153945   0.00015951   -0.00042677  
  0.00125038   0.00001277   -0.00034835  
  0.00155317   -0.00042639   0.00006339  
  0.00126916   -0.00001390   -0.00035073  
  0.00163716   -0.00033920   -0.00059642  
  0.00123063   -0.00000229   -0.00035772  
  0.00148895   0.00013231   -0.00021959  
  0.00126042   0.00000116   -0.00034781  
  0.00112092   0.00089601   0.00004149  
  0.00110796   0.00002874   -0.00036408  
  0.00140100   -0.00063834   -0.00020539  
  0.00127842   -0.00002906   -0.00034239  
  0.00158912   -0.00059394   -0.00052451  
  0.00122514   -0.00001448   -0.00038445  
  0.00123017   -0.00024110   -0.00091823  
  0.00101688   0.00000047   -0.00037184  
  0.00107140   -0.00003155   0.00013956  
  0.00178152   0.00032385   0.00070125  
  0.00127882   -0.00007334   0.00028960  
  0.00151671   -0.00000101   0.00026463  
  0.00136615   -0.00004739   0.00041700  
  0.00131636   -0.00012737   0.00044602  
  0.00138764   0.00025691   0.00008605  
  0.00100202   -0.00027696   0.00066970  
  0.00131516   0.00001390   0.00035809  
  0.00141191   -0.00000347   0.00033077  
  0.00121362   -0.00002401   0.00037902  
  0.00138363   -0.00002240   0.00029200  
  0.00123811   0.00000181   0.00048542  
  0.00140346   -0.00000380   0.00036526  
  0.00128363   0.00002815   0.00041187  
  0.00139589   0.00004947   0.00035165  
  0.00117796   -0.00010600   0.00058522  
  0.00134882   0.00013681   0.00016715  
  0.00131160   -0.00011468   0.00048979  
  0.00144870   -0.00002147   0.00031230  
  0.00131712   0.00005353   0.00045087  
  0.00126319   -0.00015984   0.00018595  
  0.00106777   0.00020815   0.00070995  
  0.00141933   -0.00000103   0.00023843  
  0.00055411   -0.00002994   0.00027244  
  0.00127159   0.00037212   0.00020275  
  0.00124104   -0.00017977   0.00037315  
  0.00152737   -0.00000234   0.00034007  
  0.00141279   -0.00001872   0.00029184  
  0.00129416   -0.00016293   0.00033945  
  0.00068767   0.00027220   0.00045323  
  -0.00041457   -0.00025319   0.00021807  
  0.02594769   0.00162305   0.00061095  
  -0.00199651   0.00006631   -0.00043046  
  -0.00126251   -0.00092171   -0.00022112  
  -0.00148913   0.00007032   -0.00032098  
  -0.00124999   -0.00023988   -0.00040449  
  -0.00145664   -0.00005222   -0.00032432  
  -0.00076138   0.00025154   -0.00080579  
  -0.00159648   -0.00007740   -0.00036287  
  -0.00116050   0.00059771   -0.00075443  
  -0.00151426   0.00004274   -0.00029480  
  -0.00130706   -0.00098531   -0.00111804  
  -0.00153126   0.00011039   -0.00024279  
  -0.00116055   -0.00028292   -0.00049000  
  -0.00146937   -0.00004467   -0.00031481  
  -0.00048641   -0.00005582   -0.00038642  
  -0.00160910   -0.00012902   -0.00023231  
  -0.00127517   0.00002224   -0.00033302  
  -0.00145019   0.00001397   -0.00031979  
  -0.00120455   -0.00004012   -0.00033820  
  -0.00147664   0.00000141   -0.00031066  
  -0.00119480   -0.00056141   -0.00025330  
  -0.00147222   -0.00001784   -0.00031745  
  -0.00122673   0.00014048   -0.00033464  
  -0.00147927   0.00000730   -0.00031660  
  -0.00122747   0.00024595   -0.00009323  
  -0.00151922   0.00004691   -0.00041074  
  -0.00145114   -0.00077601   0.00045566  
  -0.00151298   0.00001416   -0.00032817  
  -0.00121672   -0.00025290   -0.00024025  
  -0.00147571   -0.00002975   -0.00031727  
  -0.00107163   0.00045074   0.00015537  
  -0.00155448   -0.00004018   -0.00039995  

1
  -0.0080825286605076   -0.0058883554964076   0.000000000000000  
  0.03870476   0.02282293   0.00509508  
  -0.00003530   0.00004163   0.00048521  
  0.00133414   -0.00374449   0.00193612  
  0.00021788   -0.00003613   0.00040145  
  0.00060742   -0.00062473   0.00039109  
  0.00029796   -0.00003966   0.00040937  
  0.00112703   -0.00345459   -0.00037799  
  0.00017850   0.00002136   0.00042852  
  0.00096472   0.00218233   0.00021085  
  0.00021270   0.00003392   0.00040398  
  0.00034429   -0.00138402   -0.00180288  
  0.00025118   -0.00002751   0.00036165  
  0.00067819   -0.00061423   0.00052059  
  0.00029264   -0.00003515   0.00039421  
  0.00036039   -0.00171363   0.00261358  
  0.00024867   0.00001990   0.00043138  
  0.00054346   0.00002742   0.00044013  
  0.00031089   -0.00000941   0.00041637  
  0.00059885   0.00018792   0.00045460  
  0.00030396   0.00000272   0.00041779  
  0.00065554   -0.00058152   0.00040597  
  0.00027940   -0.00000684   0.00042960  
  0.00062989   0.00015314   0.00043655  
  0.00028535   0.00002199   0.00042405  
  0.00096731   0.00218624   0.00042455  
  0.00020979   0.00003838   0.00042745  
  0.00022831   -0.00153581   0.00126854  
  0.00026546   -0.00001349   0.00046437  
  0.00066907   -0.00061459   0.00043884  
  0.00029153   -0.00003129   0.00042558  
  0.00047317   -0.00156240   -0.00055207  
  0.00023306   0.00000373   0.00041887  
  -0.00066677   -0.00008368   -0.00051892  
  0.00125523   0.00151981   0.00016779  
  -0.00055191   -0.00006439   -0.00044855  
  -0.00010627   -0.00018246   -0.00030954  
  -0.00050809   -0.00000305   -0.00045093  
  -0.00039533   -0.00058337   -0.00013906  
  -0.00053437   0.00010454   -0.00050478  
  -0.00059789   -0.00105198   0.00109530  
  -0.00052790   -0.00000531   -0.00044248  
  -0.00030751   0.00008198   -0.00046476  
  -0.00057853   0.00000931   -0.00041719  
  -0.00031714   -0.00007842   -0.00052352  
  -0.00059889   -0.00002039   -0.00038092  
  -0.00030294   -0.00006410   -0.00036058  
  -0.00052280   0.00001010   -0.00040427  
  -0.00031528   0.00007581   -0.00035730  
  -0.00064633   0.00000905   -0.00036427  
  -0.00018869   0.00025451   -0.00075928  
  -0.00056210   0.00001587   -0.00041480  
  -0.00021204   -0.00006975   -0.00049866  
  -0.00057265   0.00000400   -0.00042159  
  -0.00043089   -0.00036969   -0.00084083  
  -0.00068202   -0.00004349   -0.00039665  
  -0.00025748   0.00015187   -0.00074443  
  -0.00094865   0.00001527   -0.00027921  
  -0.00136436   0.00285954   -0.00161031  
  -0.00057114   -0.00006692   -0.00042183  
  -0.00006468   -0.00011837   -0.00019860  
  -0.00050059   0.00003782   -0.00047804  
  -0.00044605   -0.00064794   -0.00022557  
  -0.00093462   0.00002875   -0.00034683  
  -0.00642599   -0.00404694   -0.00364076  
  -0.00376852   -0.00236736   -0.00315593  
  -0.00072520   0.00028715   0.00051789  
  -0.00049468   -0.00048794   0.00033073  
  -0.00048963   -0.00000727   0.00038502  
  -0.00010479   -0.00014416   0.00025477  
  -0.00057369   -0.00010961   0.00042142  
  0.00271533   0.00284939   -0.00178953  
  -0.00087512   -0.00016500   0.00055796  
  -0.00034541   0.00001815   0.00023024  
  -0.00051294   0.00001609   0.00043710  
  -0.00059894   -0.00027057   0.00000894  
  -0.00052633   -0.00000169   0.00042239  
  -0.00008186   -0.00004242   0.00056410  
  -0.00054173   -0.00004952   0.00047832  
  -0.00030327   0.00012209   0.00035601  
  -0.00054062   0.00002736   0.00048027  
  -0.00035831   0.00004415   0.00072313  
  -0.00052789   0.00004189   0.00037803  
  -0.00042331   -0.00051180   0.00078616  
  -0.00051635   -0.00001945   0.00042194  
  -0.00025868   0.00018980   0.00055565  
  -0.00054641   -0.00003484   0.00037099  
  -0.00027950   0.00009992   0.00060079  
  -0.00052376   -0.00000159   0.00037071  
  -0.00241256   -0.00420800   0.00407213  
  -0.00063200   0.00017172   0.00030111  
  -0.00042325   -0.00058729   0.00072492  
  -0.00049472   -0.00000625   0.00039754  
  -0.00017130   -0.00004408   0.00043055  
  -0.00056577   -0.00011136   0.00035924  
  0.00137476   0.00467892   0.00410006  
  -0.00096561   -0.00004766   0.00013913  
  -0.00169447   0.00025303   -0.00179107  
  -0.00169378   0.00025344   -0.00116820  
  0.00004544   -0.00037506   -0.00047519  
  0.00049544   0.00023322   -0.00019648  
  0.00038922   -0.00012889   -0.00044905  
  0.00039843   -0.00012771   -0.00036032  
  0.00055974   0.00014018   -0.00059573  
  0.00011974   -0.00047048   -0.00012939  
  0.00036368   0.00010536   -0.00049919  
  0.00037067   0.00010642   -0.00022822  
  0.00031160   -0.00005022   -0.00048452  
  0.00047301   0.00015368   -0.00032526  
  0.00038658   -0.00008995   -0.00034973  
  0.00039307   -0.00008927   -0.00041210  
  0.00054047   0.00005487   -0.00031458  
  0.00039717   -0.00015296   -0.00026690  
  0.00039660   -0.00002345   -0.00032271  
  0.00039959   -0.00002124   -0.00045097  
  0.00037182   0.00001893   -0.00032833  
  0.00035527   -0.00002009   -0.00046528  
  0.00032579   -0.00000881   -0.00033721  
  0.00033677   -0.00001138   -0.00045638  
  0.00032907   0.00000180   -0.00027618  
  0.00036260   0.00003697   -0.00045324  
  -0.00019227   0.00005608   0.00024049  
  -0.00018848   0.00005675   -0.00069544  
  -0.00001898   -0.00032524   -0.00020914  
  0.00028959   0.00008831   -0.00040473  
  0.00034781   -0.00008690   -0.00043453  
  0.00035503   -0.00008559   -0.00035224  
  0.00011957   0.00032087   -0.00030186  
  -0.00018321   -0.00010001   -0.00067172  
  -0.00041173   0.00003556   0.00039611  
  -0.00075873   -0.00002787   0.00125759  
  -0.00112612   0.00004238   0.00041481  
  -0.00173624   -0.00023636   0.00017218  
  -0.00129876   0.00004174   0.00035712  
  -0.00140117   0.00025752   0.00028241  
  -0.00132557   -0.00007333   0.00038415  
  -0.00138247   0.00074645   -0.00031637  
  -0.00126324   -0.00005971   0.00036944  
  -0.00142750   -0.00023577   0.00028697  
  -0.00126970   0.00000440   0.00037080  
  -0.00162114   0.00003736   0.00049293  
  -0.00128429   0.00002650   0.00030866  
  -0.00137827   0.00006988   0.00025929  
  -0.00137516   0.00002110   0.00034305  
  -0.00132414   0.00011941   0.00011053  
  -0.00130780   -0.00001140   0.00031668  
  -0.00141052   -0.00008347   0.00038676  
  -0.00129787   0.00001473   0.00032651  
  -0.00134764   -0.00003316   0.00049731  
  -0.00123216   0.00001119   0.00037599  
  -0.00132869   0.00015169   0.00053603  
  -0.00122936   -0.00001526   0.00030664  
  -0.00134438   -0.00002471   0.00042741  
  -0.00105432   -0.00000963   0.00035405  
  -0.00133547   -0.00073087   0.00052651  
  -0.00108332   0.00002829   0.00031434  
  -0.00135132   -0.00049528   0.00080087  
  -0.00127571   0.00003499   0.00035348  
  -0.00138274   0.00029766   0.00037829  
  -0.00106075   -0.00006390   0.00028528  
  -0.00068070   0.00120479   0.00140049  
  -0.00121683   -0.00831117   -0.00810630  
  0.00166989   0.00002739   -0.00028075  
  0.00131873   0.00060924   -0.00029523  
  0.00148425   0.00003673   -0.00032372  
  0.00107769   0.00079781   -0.00055874  
  0.00150592   0.00001289   -0.00031397  
  -0.00066229   -0.00522554   0.00333037  
  0.00158163   -0.00005308   -0.00028322  
  0.00112987   -0.00050204   -0.00053834  
  0.00146867   -0.00002239   -0.00034289  
  0.00154653   0.00099074   0.00031388  
  0.00148451   0.00001109   -0.00033242  
  0.00088838   0.00080060   -0.00088210  
  0.00150164   0.00002607   -0.00034051  
  0.00132454   -0.00042882   -0.00020777  
  0.00147922   -0.00002661   -0.00032410  
  0.00119397   -0.00016865   -0.00026529  
  0.00148189   -0.00002662   -0.00033670  
  0.00118363   0.00043812   -0.00074705  
  0.00145662   0.00001395   -0.00034178  
  0.00110089   0.00034349   -0.00007937  
  0.00150403   0.00000977   -0.00033039  
  0.00124651   -0.00014625   -0.00047368  
  0.00147036   -0.00000925   -0.00033948  
  0.00158866   -0.00087619   -0.00076084  
  0.00162503   -0.00004091   -0.00031798  
  0.00131447   0.00065370   -0.00049989  
  0.00146467   0.00002633   -0.00034151  
  0.00114655   0.00059444   -0.00017780  
  0.00151241   0.00001528   -0.00030327  
  0.00150307   0.00022582   0.00020289  
  0.00173660   -0.00000617   -0.00031251  
  0.00168779   0.00001298   0.00055278  
  0.00095726   -0.00033078   -0.00002136  
  0.00146590   0.00008621   0.00039148  
  0.00120886   0.00001826   0.00041548  
  0.00138052   0.00006968   0.00027422  
  0.00141234   0.00013447   0.00023070  
  0.00136063   -0.00025766   0.00059946  
  0.00173176   0.00027523   0.00001759  
  0.00143985   -0.00001233   0.00033388  
  0.00131405   0.00000672   0.00036137  
  0.00153146   0.00002490   0.00031266  
  0.00134065   0.00002404   0.00037946  
  0.00151382   0.00000617   0.00020218  
  0.00132502   0.00002524   0.00031629  
  0.00146947   -0.00001288   0.00029512  
  0.00132778   -0.00005987   0.00034185  
  0.00158891   0.00010394   0.00009636  
  0.00138803   -0.00015202   0.00050563  
  0.00145618   0.00012197   0.00019696  
  0.00128352   0.00002310   0.00036870  
  0.00142636   -0.00004890   0.00023350  
  0.00147594   0.00018034   0.00049299  
  0.00167879   -0.00020973   -0.00003545  
  0.00132436   0.00000258   0.00043541  
  0.00220412   0.00002277   0.00041727  
  0.00145098   -0.00038602   0.00046980  
  0.00151011   0.00019719   0.00029621  
  0.00121096   0.00000732   0.00034413  
  0.00135597   0.00003016   0.00038694  
  0.00144942   0.00016567   0.00033991  
  0.00207506   -0.00026240   0.00023479  
  0.00318323   0.00024711   0.00046796  
  -0.02754125   -0.00169376   -0.00139755  
  -0.00073327   -0.00008787   -0.00024286  
  -0.00146689   0.00090850   -0.00046345  
  -0.00124495   -0.00006713   -0.00035640  
  -0.00150243   0.00025300   -0.00030084  
  -0.00128224   0.00004897   -0.00035894  
  -0.00199439   -0.00025467   0.00009894  
  -0.00114039   0.00009015   -0.00031875  
  -0.00159499   -0.00062357   0.00005978  
  -0.00123346   -0.00005173   -0.00039128  
  -0.00144079   0.00098555   0.00044146  
  -0.00121534   -0.00011581   -0.00044485  
  -0.00161072   0.00029690   -0.00019487  
  -0.00126777   0.00004756   -0.00036577  
  -0.00226689   0.00005510   -0.00029741  
  -0.00113762   0.00012492   -0.00045637  
  -0.00145711   -0.00003654   -0.00034529  
  -0.00127009   -0.00002247   -0.00037191  
  -0.00152655   0.00002822   -0.00034310  
  -0.00126353   -0.00000850   -0.00036831  
  -0.00156253   0.00056899   -0.00042457  
  -0.00127150   0.00003753   -0.00037156  
  -0.00151738   -0.00014057   -0.00035613  
  -0.00125138   -0.00000415   -0.00036395  
  -0.00151541   -0.00025932   -0.00060652  
  -0.00119003   -0.00005596   -0.00026411  
  -0.00130018   0.00076679   -0.00116095  
  -0.00120680   -0.00001268   -0.00034267  
  -0.00154723   0.00027290   -0.00046293  
  -0.00125343   0.00003052   -0.00035700  
  -0.00167454   -0.00045206   -0.00082701  
  -0.00116883   0.00004949   -0.00027336  

1
  0.0000000000000000   0.0000000000000000   0.010000000000000  
  -0.00555755   -0.00000000   -0.03703105  
  0.00032639   0.00000000   0.00032526  
  -0.00001400   0.00196725   -0.00474453  
  0.00041767   -0.00001942   0.00036633  
  0.00045918   -0.00000000   -0.00016403  
  0.00042483   0.00000000   0.00042611  
  -0.00001400   -0.00196725   -0.00474453  
  0.00041767   0.00001942   0.00036633  
  0.00041156   0.00000000   0.00480403  
  0.00040386   0.00000000   0.00043170  
  0.00049271   0.00153074   0.00295858  
  0.00038874   0.00003553   0.00042127  
  0.00039476   0.00000000   0.00033004  
  0.00040986   0.00000000   0.00039449  
  0.00049271   -0.00153074   0.00295858  
  0.00038874   -0.00003553   0.00042127  
  0.00037995   0.00000000   0.00105635  
  0.00040954   0.00000000   0.00047945  
  0.00037605   0.00001780   0.00113763  
  0.00041125   -0.00000274   0.00047035  
  0.00042587   0.00000000   0.00129748  
  0.00039953   0.00000000   0.00044697  
  0.00037605   -0.00001780   0.00113763  
  0.00041125   0.00000274   0.00047035  
  0.00066933   0.00000000   0.00475130  
  0.00042711   0.00000000   0.00044240  
  0.00041576   -0.00373077   0.00295541  
  0.00043731   -0.00006278   0.00042447  
  0.00029542   0.00000000   0.00032632  
  0.00043245   0.00000000   0.00039666  
  0.00041576   0.00373077   0.00295541  
  0.00043731   0.00006278   0.00042447  
  -0.00030101   0.00001400   -0.00052681  
  -0.00171269   0.00078296   0.00069307  
  -0.00037183   -0.00000198   -0.00043797  
  -0.00066546   0.00013738   -0.00035855  
  -0.00037183   0.00000198   -0.00043797  
  -0.00066546   -0.00013738   -0.00035855  
  -0.00030101   -0.00001400   -0.00052681  
  -0.00171269   -0.00078296   0.00069307  
  -0.00040899   0.00003126   -0.00034860  
  -0.00042875   0.00009599   -0.00011708  
  -0.00044496   0.00003325   -0.00038068  
  -0.00039013   0.00014052   -0.00019583  
  -0.00044496   -0.00003325   -0.00038068  
  -0.00039013   -0.00014052   -0.00019583  
  -0.00040899   -0.00003126   -0.00034860  
  -0.00042875   -0.00009599   -0.00011708  
  -0.00045317   -0.00002689   -0.00033727  
  -0.00001045   0.00000421   -0.00009369  
  -0.00040972   -0.00000912   -0.00042760  
  -0.00011429   -0.00028843   -0.00037325  
  -0.00040972   0.00000912   -0.00042760  
  -0.00011429   0.00028843   -0.00037325  
  -0.00045317   0.00002689   -0.00033727  
  -0.00001045   -0.00000421   -0.00009369  
  -0.00053033   -0.00004867   -0.00039645  
  0.00229518   -0.00169207   -0.00172597  
  -0.00037364   -0.00004346   -0.00043358  
  -0.00067875   -0.00002323   -0.00073514  
  -0.00037364   0.00004346   -0.00043358  
  -0.00067875   0.00002323   -0.00073514  
  -0.00053033   0.00004867   -0.00039645  
  0.00229518   0.00169207   -0.00172597  
  0.00414725   -0.00000970   0.00072387  
  -0.00064525   0.00014165   0.00030219  
  -0.00019948   0.00025301   0.00024284  
  -0.00045674   0.00003388   0.00034903  
  -0.00019948   -0.00025301   0.00024284  
  -0.00045674   -0.00003388   0.00034903  
  0.00414725   0.00000970   0.00072387  
  -0.00064525   -0.00014165   0.00030219  
  -0.00008607   0.00010356   0.00083409  
  -0.00044500   0.00000824   0.00049849  
  -0.00007636   0.00019458   0.00067528  
  -0.00042805   0.00004651   0.00047299  
  -0.00007636   -0.00019458   0.00067528  
  -0.00042805   -0.00004651   0.00047299  
  -0.00008607   -0.00010356   0.00083409  
  -0.00044500   -0.00000824   0.00049849  
  -0.00054068   -0.00010418   0.00083218  
  -0.00034474   -0.00003716   0.00050076  
  -0.00055607   -0.00046721   0.00067255  
  -0.00035628   -0.00004891   0.00047475  
  -0.00055607   0.00046721   0.00067255  
  -0.00035628   0.00004891   0.00047475  
  -0.00054068   0.00010418   0.00083218  
  -0.00034474   0.00003716   0.00050076  
  -0.00395869   -0.00117901   0.00073552  
  -0.00024775   -0.00002836   0.00029688  
  -0.00054680   0.00006602   0.00023777  
  -0.00041482   -0.00002508   0.00034460  
  -0.00054680   -0.00006602   0.00023777  
  -0.00041482   0.00002508   0.00034460  
  -0.00395869   0.00117901   0.00073552  
  -0.00024775   0.00002836   0.00029688  
  -0.00053598   -0.00000000   -0.00148360  
  -0.00129386   -0.00000000   -0.00147569  
  0.00071302   0.00006352   -0.00064024  
  0.00024684   -0.00010271   -0.00064266  
  0.00047164   -0.00000000   -0.00040676  
  0.00035379   -0.00000000   -0.00040555  
  0.00071302   -0.00006352   -0.00064024  
  0.00024684   0.00010271   -0.00064266  
  0.00063167   -0.00000000   -0.00022573  
  0.00029050   -0.00000000   -0.00022193  
  0.00054681   0.00004566   -0.00029481  
  0.00042031   0.00014846   -0.00029240  
  0.00041084   -0.00000000   -0.00030217  
  0.00048008   -0.00000000   -0.00031006  
  0.00054681   -0.00004566   -0.00029481  
  0.00042031   -0.00014846   -0.00029240  
  0.00035393   -0.00000000   -0.00025297  
  0.00050543   -0.00000000   -0.00025428  
  0.00035092   0.00001191   -0.00030211  
  0.00053464   0.00004967   -0.00030161  
  0.00035514   -0.00000000   -0.00036643  
  0.00049626   -0.00000000   -0.00035976  
  0.00035092   -0.00001191   -0.00030211  
  0.00053464   -0.00004967   -0.00030161  
  0.00003885   -0.00000000   -0.00016204  
  0.00117921   -0.00000000   -0.00016235  
  0.00025076   -0.00021261   -0.00047205  
  0.00058678   -0.00007280   -0.00047070  
  0.00048571   -0.00000000   -0.00055036  
  0.00036938   -0.00000000   -0.00054994  
  0.00025076   0.00021261   -0.00047205  
  0.00058678   0.00007280   -0.00047070  
  -0.00109667   0.00000000   0.00028991  
  -0.00026402   0.00000000   0.00116455  
  -0.00141786   0.00009721   0.00042573  
  -0.00103161   0.00010087   0.00073345  
  -0.00139229   0.00000000   0.00036886  
  -0.00133738   0.00000000   0.00045038  
  -0.00141786   -0.00009721   0.00042573  
  -0.00103161   -0.00010087   0.00073345  
  -0.00152929   0.00000000   0.00026474  
  -0.00121848   0.00000000   -0.00010085  
  -0.00142594   -0.00002472   0.00029419  
  -0.00130059   -0.00014027   0.00006608  
  -0.00137115   0.00000000   0.00030754  
  -0.00145873   0.00000000   0.00022797  
  -0.00142594   0.00002472   0.00029419  
  -0.00130059   0.00014027   0.00006608  
  -0.00137267   0.00000000   0.00028001  
  -0.00148045   0.00000000   0.00008352  
  -0.00136667   0.00001852   0.00030153  
  -0.00151381   0.00010792   0.00008424  
  -0.00130255   0.00000000   0.00031525  
  -0.00139346   0.00000000   0.00011610  
  -0.00136667   -0.00001852   0.00030153  
  -0.00151381   -0.00010792   0.00008424  
  -0.00121525   0.00000000   0.00041864  
  -0.00199676   0.00000000   0.00111486  
  -0.00133382   -0.00000484   0.00038170  
  -0.00164217   0.00024754   0.00029748  
  -0.00143811   0.00000000   0.00038984  
  -0.00127163   0.00000000   0.00066610  
  -0.00133382   0.00000484   0.00038170  
  -0.00164217   -0.00024754   0.00029748  
  0.00247228   0.00956642   0.01447035  
  0.00139283   0.00002078   -0.00027371  
  0.00142212   -0.00037736   0.00000266  
  0.00138593   0.00002414   -0.00030855  
  0.00142212   0.00037736   0.00000266  
  0.00138593   -0.00002414   -0.00030855  
  0.00247228   -0.00956642   0.01447035  
  0.00139283   -0.00002078   -0.00027371  
  0.00104947   -0.00036818   -0.00122736  
  0.00135731   -0.00002077   -0.00037323  
  0.00096428   -0.00070888   -0.00125722  
  0.00138473   -0.00001223   -0.00036471  
  0.00096428   0.00070888   -0.00125722  
  0.00138473   0.00001223   -0.00036471  
  0.00104947   0.00036818   -0.00122736  
  0.00135731   0.00002077   -0.00037323  
  0.00135153   0.00016979   -0.00087536  
  0.00132008   0.00002312   -0.00039489  
  0.00145464   0.00058601   -0.00124806  
  0.00132134   0.00001544   -0.00037928  
  0.00145464   -0.00058601   -0.00124806  
  0.00132134   -0.00001544   -0.00037928  
  0.00135153   -0.00016979   -0.00087536  
  0.00132008   -0.00002312   -0.00039489  
  0.00159261   0.00113691   -0.00126433  
  0.00135292   -0.00000841   -0.00032394  
  0.00143066   0.00007011   0.00050046  
  0.00137840   0.00001590   -0.00031315  
  0.00143066   -0.00007011   0.00050046  