  96
   1   1
    18.761001933283417     1.051932184201565    -0.764670347050500
     1.074730500000000    21.646713500000004    -0.520336000000000
    -0.744542302273396    -0.525263532629542    21.027946350833322
   1   2
    -0.075894379884219     0.041854979817391    -0.007948147796585
     0.054019500000000    -0.051911000000000     0.058866000000000
     0.054268725053490     0.068965497426080    -0.063717009993852
   1   3
    -0.092701548195532    -0.004580398252782     0.024285950694653
    -0.007884500000000    -0.923445000000000    -0.078649500000000
     0.005740877886186    -0.067677030078812     0.229776325607985
   1   4
    -0.021469025950341     0.047888282411122     0.030158240885001
     0.039222500000000     0.010118000000000     0.014742500000000
    -0.027540694038026     0.004572905002092     0.032418399819739
   1   5
    -0.003967319584022     0.188021787457880     0.240615044959574
     0.181524500000000     0.279453500000000     0.085088500000000
     0.201453165842652     0.081390906144405    -0.155595329149340
   1   6
    -0.216198259250089    -0.051793250240936    -0.287472498306896
    -0.050751000000000     0.290012000000000     0.082734000000000
    -0.310860951101185     0.092319660880172    -0.458475649607123
   1   7
    -0.265585452083287    -0.068404034177273     0.030411805011459
    -0.057167500000000    -0.147530500000000    -0.171703000000000
     0.073999892903273    -0.165531496240240    -0.149566495996114
   1   8
     0.061135498017681     0.125590107713646    -0.024173919696827
     0.126006000000000    -0.357784500000000    -0.137714000000000
    -0.017460650628988    -0.138686775590428    -0.224375170934402
   1   9
     0.812832201887880    -3.025243030726004     2.897971110548774
     0.758963000000000    -2.079326500000000     2.281369000000000
    -0.485809360620050     2.008763270207822    -1.958594836272681
   1  10
    -0.097359289927110    -0.379090848448450     0.347020588864702
     0.168215500000000     0.050176000000000     0.010202500000000
    -0.097292354626723    -0.103438230265975     0.084305262406335
   1  11
    -0.050971201568638     0.614103122963223     0.570815925771848
     0.743778500000000    -1.067227000000000    -1.216180500000000
     0.758087562586452    -1.210321349940684    -0.853958998462228
   1  12
    -0.263144050708811     0.032018920246412     0.028320865011158
    -0.106246500000000    -0.097917500000000    -0.020039500000000
    -0.152408976620562     0.009737757023764    -0.106473917442114
   1  13
     0.723105592872814    -0.697882722650542    -0.553257381128354
     3.038229000000000    -2.078744500000000    -2.022332500000000
     2.882451869154821    -2.282978457776147    -1.967260408650406
   1  14
    -0.161939350899832    -0.181461070919972    -0.134872560479793
     0.386908000000000     0.045990000000000     0.102425000000000
     0.274368211841488    -0.010348266323324     0.075094299238581
   1  15
     0.018167119925295    -0.795303744122781     0.819363551552832
    -0.621356000000000    -1.071373000000000     1.213937500000000
     0.598054249666233     1.200890766866982    -0.842679280698316
   1  16
    -0.184713439550689     0.126665316184539    -0.122147507011471
    -0.013869500000000    -0.096321500000000    -0.008145500000000
     0.061914463137526     0.017194705041970    -0.099626181794595
   1  17
    -0.660451237216229     3.340652641476869    -3.186061300104382
     1.179978500000000    -2.249985500000000     2.654009500000000
    -1.221572340126120     2.751889809927663    -2.307970604426185
   1  18
    -0.076286399548837     0.329181175771815    -0.270460815939830
     0.001215000000000     0.111683000000000    -0.052030000000000
    -0.016654139672193    -0.035920603977361    -0.048737564304527
   1  19
    -0.586474956050937    -1.197462257629148    -1.200756407008045
    -3.344389000000000    -2.253285500000000    -2.750507000000000
    -3.135409163744598    -2.650772019551807    -2.297893203089594
   1  20
    -0.027281759956785     0.018569624327787     0.021137641028725
    -0.343054000000000     0.115556000000000     0.046829500000000
    -0.241366129687000     0.057995579924028    -0.048995091719428
   1  21
    -0.094135382034415     0.149368892856153     0.094186176326152
     0.115135500000000     0.008093000000000    -0.000523500000000
     0.168878564165745     0.032103908066878    -0.004711229611474
   1  22
     0.406662556350951     0.239976462511495     0.166316283266030
    -1.101384000000000    -0.795532000000000    -1.172024000000000
    -1.119978469384653    -1.245899407210538    -0.817324720327559
   1  23
    -0.168430168391390    -0.126485003637502     0.120360927553831
    -0.135799000000000    -0.004958500000000    -0.035589000000000
     0.037064590452930     0.007062031575706    -0.015652640970971
   1  24
     0.301411279303409     1.152898621003693    -1.175513299585080
    -0.311622500000000    -0.784087000000000     1.235663000000000
     0.111369941238447     1.183438541723573    -0.832462350747970
   1  25
    -2.200773015688337    -0.078654450667909     0.146222288347486
    -0.084637000000000     1.290340500000000    -0.698760000000000
     0.094165268480628    -0.701099747794316     1.151733220289993
   1  26
    -6.400600965679218    -1.134502979059516     0.144033769552201
    -1.163619000000000     2.982906500000000    -3.156632000000000
     0.123788599493943    -3.163165289449926     3.054916231063784
   1  27
    -0.114721202864346    -0.175556961613333    -0.088350166299095
    -0.181394000000000    -0.444008000000000     0.112634500000000
    -0.030744717524694     0.117608832352715     0.409283975032884
   1  28
     0.175446072168535     0.022751699459308     0.127280223372405
     0.048742500000000    -0.225576000000000     0.005687500000000
     0.152175255079853    -0.001157946571422     0.126983766244886
   1  29
     0.064791194388446     0.011551866075477    -0.122855429337777
     0.017937000000000     0.418479000000000    -0.166617500000000
    -0.097430339377669    -0.164708095410688    -0.744420841678179
   1  30
     0.047196002081601    -0.048002941912926    -0.015931647488008
    -0.061023000000000     0.023601500000000     0.010896500000000
     0.014209503973938     0.005772869101195    -0.189387105553438
   1  31
    -0.184713674729825    -0.072599693299709    -0.142262256499265
    -0.093242000000000    -0.038983500000000    -0.217448000000000
    -0.151283173796533    -0.221344497118041    -0.084573100080150
   1  32
     0.318603473726550     0.032117869947520    -0.137703096058202
     0.040129500000000    -0.062738500000000     0.022489500000000
    -0.181976974276936     0.016986844910773    -0.113282601917150
   1  33
    -4.191056651566162    -4.744856352805234     4.390931631179226
    -2.472209500000000    -6.057063000000001     4.979153000000000
     1.959906615743060     4.075508777862977    -4.702802874076569
   1  34
     0.103303346044504    -0.093828126965193     0.091261106065551
     0.012662500000000    -0.075464500000000     0.094562500000000
    -0.051779269754174     0.031650286068915    -0.110169792646204
   1  35
    -0.229979119948251     0.124537551362906     0.062531245325604
    -0.238226000000000     0.637236500000000    -0.219280500000000
    -0.351915416815528     0.580832287634369    -0.162608845565033
   1  36
     0.013027248828780     0.046280105428345    -0.024823448636413
    -0.002715500000000     0.047625500000000    -0.050636000000000
    -0.029926491190201     0.024089197056398    -0.065160417221576
   1  37
    -0.031658189547887    -0.008126307356123    -0.041536037757062
     0.010873500000000    -0.161826000000000     0.164384500000000
     0.001171255489697    -0.151823165028302     0.213690766174250
   1  38
     0.004248943453818    -0.032751967541654     0.023725502581140
    -0.000749000000000    -0.010437000000000     0.035016000000000
     0.030667719361442     0.017457530751299     0.015178052705397
   1  39
    -0.043448517422379     0.159154741089810    -0.130386959716339
    -0.055555500000000     0.189391000000000    -0.146313000000000
     0.062070165285385    -0.078797914407767     0.142899620059542
   1  40
     0.105267324950540     0.079323282422974    -0.038530322417241
     0.018349500000000     0.011632000000000     0.008813000000000
     0.048873726846618     0.066278405262502    -0.042276946496614
   1  41
    -1.086118416729748     0.716413571860879     0.949510320048933
     0.666134500000000     0.697545000000000     1.377627500000000
     0.943326641785390     1.244849317733327     0.432198136157604
   1  42
    -0.011019639893948    -0.068214080850049    -0.051888552563363
    -0.016081500000000     0.032669000000000     0.014984500000000
    -0.013375629519830     0.024694808832132     0.023116996669773
   1  43
    -0.475201406977969    -0.031025487713010    -0.088823593837098
     0.004368000000000    -0.190374000000000    -0.432895000000000
    -0.112896358116509     0.037387037317402     0.238701297194608
   1  44
     0.017537980551735     0.003402983227788    -0.042529964449216
    -0.010414500000000    -0.039568500000000    -0.020991000000000
    -0.013638489992853     0.007267705402653    -0.025269163246101
   1  45
     0.097892579031328     0.050603361627201    -0.083251689426581
     0.169547500000000     0.066445500000000    -0.112548000000000
    -0.073153955235712    -0.124537903735270     0.010392483250632
   1  46
     0.261951640571783    -0.203161891795767     0.171904020535656
    -0.283909000000000     0.121366000000000    -0.187420000000000
     0.276877146149759    -0.199840593074948     0.116689999916349
   1  47
    -0.099439061760253     0.299981059831983     0.141326397923943
    -0.220749000000000     0.258196000000000     0.059032000000000
    -0.186734354789230     0.250204472915484     0.080864590778622
   1  48
    -0.016966711282432     0.110414504574483     0.158550887918253
     0.363434000000000     0.062081000000000     0.264597000000000
     0.300933640872063     0.102482996307183     0.292310562382864
   1  49
     0.377673205870765     0.350524529944113     0.326729441669348
     0.051960000000000     0.132488000000000     0.309509500000000
     0.086887661319058     0.410327894999312     0.138360833056412
   1  50
    -0.044893126384240    -0.107914885650779    -0.177654794707236
     0.120708500000000    -0.084231000000000     0.320912500000000
    -0.058925790774297     0.299945369717260    -0.072856408251265
   1  51
     0.230123783844689    -0.133885811338007     0.138371518747359
    -0.072844500000000     0.191120000000000    -0.135119000000000
     0.307383302313911    -0.146344753098888     0.115132520513057
   1  52
     0.142083370735643    -0.054348274832106    -0.109772986446454
     0.157368000000000    -0.012339500000000    -0.147192000000000
    -0.164491663290633    -0.004879570597744     0.156795309213834
   1  53
     0.004515811338962     0.044655972243283    -0.009529384857033
     0.015582500000000     0.023164500000000     0.040001000000000
     0.033116388394686     0.069591621468104     0.076056201978976
   1  54
    -0.495219272086553     0.123924126087512    -0.023529603076513
    -0.065644000000000     0.219527500000000     0.022981000000000
     0.122729759308937    -0.343175289887203    -0.004478599298165
   1  55
     0.086319717948193    -0.038778670868346    -0.027035764852497
     0.003668500000000    -0.012901000000000     0.017626000000000
     0.018430633413135     0.009102848630026    -0.003628558660768
   1  56
     0.091817311198247    -0.132079476139674    -0.032140099567983
     0.174939500000000    -0.169683500000000    -0.151881500000000
     0.144161927070599    -0.101814752481317    -0.106720309524672
   1  57
    -0.049424099948856     0.161371706545137    -0.126674315904515
    -0.007780000000000    -0.114348000000000     0.041196000000000
    -0.003823038061285     0.104153456722098    -0.077658575503612
   1  58
    -2.171560021742535     3.695856724839623    -3.673978422231803
     1.906007000000000    -4.026738500000000     3.443184000000000
    -2.418127286073657     4.293337191739411    -5.033293561086912
   1  59
     0.053333787943428    -0.046063661977920     0.017469595280098
     0.051695000000000     0.041879000000000     0.027499500000000
     0.012169684796706    -0.005764358831444    -0.024962164211976
   1  60
     0.087942903163161     0.057206471214690    -0.068867682909339
    -0.088394000000000     0.202766500000000    -0.085057000000000
    -0.132455237320927     0.121814404601908    -0.171006914483835
   1  61
     0.256020767508373     0.010640265965939     0.272563437106195
     0.310549500000000    -0.297195000000000     0.642798000000000
     0.482096791965547    -0.186930359253026     0.790526128727082
   1  62
    -0.015515567383872     0.010328927847410    -0.025875923292203
    -0.000663000000000    -0.039961500000000    -0.010172000000000
    -0.013642736291474    -0.011450205458109     0.026027391051439
   1  63
    -0.030044630219450    -0.392300465570515     0.397687724691982
    -0.198426000000000     0.137985500000000    -0.187254500000000
     0.150943135277780    -0.232977336446691     0.197365212197734
   1  64
    -0.064437029279896     0.046387363935107    -0.062951351776618
    -0.030015000000000     0.054703000000000     0.001836000000000
    -0.012946845455516    -0.029563393367043     0.068838323099622
   1  65
    -1.500216666125869    -0.179842013290898     0.079768278369590
    -0.752894500000000    -5.829044000000001    -4.215307000000000
    -0.439263353133901    -4.143078692772416    -5.887059673315274
   1  66
    -0.008359519868686     0.093268209967159     0.111839014268059
     0.036031000000000    -0.038436500000000    -0.051849500000000
     0.014872611655416    -0.002789811096008     0.020180918255813
   1  67
    -0.289821166937461    -0.176981923892606     0.035931276194048
    -0.031148500000000     0.597369500000000     0.152547500000000
    -0.016654797888185    -0.342652734840411    -0.122997578565080
   1  68
     0.018445500501089    -0.066809403880207    -0.043566823838641
    -0.035607000000000    -0.013722000000000    -0.004296500000000
     0.019612825765860    -0.042622756273308    -0.056519326925991
   1  69
     0.115603671315409    -0.140247821709958    -0.277143208837477
     0.113411500000000    -0.087151500000000    -0.211657500000000
    -0.056331530378509    -0.030166671924514     0.089358182087587
   1  70
     0.138438725726290    -0.019362469251685     0.212711910569873
    -0.081922500000000    -0.048849000000000    -0.172342000000000
     0.096902699840450     0.018395571240094     0.247329797493982
   1  71
    -0.052876128890139    -0.006086903266525    -0.001049263189681
    -0.170417000000000     0.108454500000000     0.165655500000000
    -0.234615054356890     0.142837197239829     0.200853434945314
   1  72
    -0.076763083215998    -0.119237242552048    -0.072928186553522
     0.189916500000000     0.277017500000000     0.189770500000000
     0.173802522137133     0.247495000029679     0.191145182656454
   1  73
    -1.087049344915110     1.825968192437146    -1.646980581254050
     0.783282500000000     0.830777000000000    -1.564945000000000
     0.219703581131038    -0.993753746980427     0.023725385709105
   1  74
    -0.200982314367499     0.446001407331123    -0.371144663288801
     0.102135500000000    -0.171122500000000     0.069321000000000
    -0.172885204829312     0.289563320304719    -0.277438427915816
   1  75
    -0.067962893706108     0.009782001558513    -0.098392459091867
    -0.020656000000000     0.246005000000000    -0.144175500000000
     0.040957949525560     0.212092302255764    -0.212312003045627
   1  76
     0.024571198770906     0.037645927598723    -0.025644185521451
    -0.054800500000000     0.000038500000000     0.035083500000000
    -0.009073962632851     0.002456956367651     0.004018146928831
   1  77
    -0.116754489863526     0.017942361518349     0.125573752335230
    -0.424453500000000    -0.176976500000000     0.519223000000000
    -0.363002273134401    -0.074494793718467     0.445468577815749
   1  78
    -0.010782567798656     0.030846838101023     0.005740088632320
    -0.015048500000000    -0.041148500000000     0.002359500000000
     0.016743573620281    -0.048561420918768     0.024110578465616
   1  79
     0.144726813773351     0.114990621270795    -0.124685022479235
     0.056916500000000    -0.028575500000000     0.075697000000000
    -0.030622510760268     0.047787394855683    -0.028090115490866
   1  80
     0.018081078431655    -0.012331492817668     0.052564194771712
    -0.033235500000000     0.060949000000000    -0.037725500000000
     0.049736198416895    -0.054751585820975     0.068460002960777
   1  81
    -0.413911781827454    -1.210652834175109     1.300258490956594
    -0.445047000000000    -0.564491000000000    -0.724120500000000
     1.387022916042306    -1.270266907894712     0.426964296545524
   1  82
    -0.341003326900016    -0.260819821023237     0.311143581829046
    -0.231431000000000    -0.214473000000000     0.219621500000000
     0.118457912336151     0.059200518186593    -0.100228680993453
   1  83
     0.152261035519638     0.164189716543037     0.032690973839006
     0.433305000000000     0.737917500000000    -0.138137500000000
     0.423150628145276     0.564444135953805    -0.182700807769310
   1  84
    -0.014942179584471    -0.076282980575648     0.072958983112705
     0.018468500000000     0.011721500000000    -0.058288500000000
    -0.014663924037087     0.030146285377907    -0.049452563707961
   1  85
     0.049912508471886    -0.035850557131178    -0.005437158095740
     0.014422000000000    -0.016730000000000    -0.005350000000000
    -0.024409614766640    -0.009188265668329     0.041690875135241
   1  86
     0.007079726578812    -0.033009371131025     0.035356497429436
     0.053990500000000    -0.186820000000000     0.172106500000000
     0.041291408324764    -0.164823087148170     0.243092932927289
   1  87
     0.026167980485333     0.086357843262150    -0.085908849791204
     0.002881000000000     0.006333000000000     0.021391000000000
    -0.031689594107165    -0.010930669586701     0.037517702764522
   1  88
    -0.146513538555592    -0.260572092379231     0.262198146257048
    -0.056473000000000     0.164701000000000    -0.100317500000000
     0.045043628757304    -0.060949893994142     0.088840506037616
   1  89
     0.368582861974176    -0.200218575575642    -0.251330943701778
    -0.051954500000000    -0.196041500000000     0.026710500000000
    -0.032668172613188     0.003275925799414    -0.177359249066056
   1  90
     0.495686257113408    -0.018189836099750    -0.076816065689913
     0.096471500000000    -0.354154500000000     0.190673000000000
    -0.149647695310221     0.228995159811654    -0.332691511316765
   1  91
     0.205337256495001     0.323462893138172     0.114784868756044
     0.082518000000000     0.276758500000000     0.030010500000000
    -0.132324241176665    -0.234898312211456    -0.064753152641598
   1  92
     0.073265710472808    -0.110123216618112     0.029088823009490
    -0.113713000000000     0.122712500000000     0.034596000000000
     0.101692997183099    -0.103883740766846    -0.015963317070571
   1  93
    -0.191804749548278    -0.023176017830144     0.113351544648849
    -0.033882000000000    -0.141693000000000    -0.365141500000000
     0.054126216526976     0.152908262556434     0.523855038826943
   1  94
     0.015539729746181     0.082409860215471     0.074595282158201
    -0.009659500000000     0.018312500000000     0.029078000000000
    -0.021709848116557     0.054612288496418     0.070080760237704
   1  95
     0.017450812894304     0.170404904313789     0.182388846881802
     0.054952000000000     0.327098500000000     0.327759500000000
     0.048935444637808     0.351192807689158     0.350197284464025
   1  96
     0.028974778834367     0.054730846695113     0.051237312779118
    -0.047129000000000     0.045185500000000     0.040755500000000
    -0.046064940231806     0.060956901811413     0.071701422358491
   2   1
    -0.075894379884219     0.041854979817391    -0.007948147796585
     0.054019500000000    -0.051911000000000     0.058866000000000
     0.054268725053490     0.068965497426080    -0.063717009993852
   2   2
    18.761001933283413     1.051932184201565    -0.764670347050499
     1.074730500000000    21.646713500000004    -0.520336000000000
    -0.744542302273396    -0.525263532629542    21.027946350833318
   2   3
    -0.021469025950341     0.047888282411122     0.030158240885001
     0.039222500000000     0.010118000000000     0.014742500000000
    -0.027540694038026     0.004572905002092     0.032418399819739
   2   4
    -0.092701548195531    -0.004580398252782     0.024285950694653
    -0.007884500000000    -0.923445000000000    -0.078649500000000
     0.005740877886186    -0.067677030078812     0.229776325607985
   2   5
    -0.216198259250089    -0.051793250240936    -0.287472498306896
    -0.050751000000000     0.290012000000000     0.082734000000000
    -0.310860951101185     0.092319660880172    -0.458475649607123
   2   6
    -0.003967319584022     0.188021787457880     0.240615044959574
     0.181524500000000     0.279453500000000     0.085088500000000
     0.201453165842652     0.081390906144405    -0.155595329149340
   2   7
     0.061135498017681     0.125590107713646    -0.024173919696827
     0.126006000000000    -0.357784500000000    -0.137714000000000
    -0.017460650628988    -0.138686775590428    -0.224375170934402
   2   8
    -0.265585452083287    -0.068404034177273     0.030411805011459
    -0.057167500000000    -0.147530500000000    -0.171703000000000
     0.073999892903273    -0.165531496240240    -0.149566495996114
   2   9
    -0.097359289927110    -0.379090848448450     0.347020588864702
     0.168215500000000     0.050176000000000     0.010202500000000
    -0.097292354626723    -0.103438230265975     0.084305262406335
   2  10
     0.812832201887879    -3.025243030726004     2.897971110548773
     0.758963000000000    -2.079326500000000     2.281368999999999
    -0.485809360620050     2.008763270207822    -1.958594836272681
   2  11
    -0.263144050708811     0.032018920246412     0.028320865011158
    -0.106246500000000    -0.097917500000000    -0.020039500000000
    -0.152408976620562     0.009737757023764    -0.106473917442114
   2  12
    -0.050971201568638     0.614103122963222     0.570815925771848
     0.743778500000000    -1.067227000000000    -1.216180500000000
     0.758087562586452    -1.210321349940683    -0.853958998462228
   2  13
    -0.161939350899832    -0.181461070919972    -0.134872560479793
     0.386908000000000     0.045990000000000     0.102425000000000
     0.274368211841488    -0.010348266323324     0.075094299238581
   2  14
     0.723105592872814    -0.697882722650541    -0.553257381128354
     3.038229000000000    -2.078744500000000    -2.022332500000000
     2.882451869154821    -2.282978457776146    -1.967260408650406
   2  15
    -0.184713439550688     0.126665316184539    -0.122147507011471
    -0.013869500000000    -0.096321500000000    -0.008145500000000
     0.061914463137526     0.017194705041970    -0.099626181794595
   2  16
     0.018167119925295    -0.795303744122781     0.819363551552832
    -0.621356000000000    -1.071373000000000     1.213937500000000
     0.598054249666233     1.200890766866982    -0.842679280698316
   2  17
    -0.076286399548837     0.329181175771815    -0.270460815939830
     0.001215000000000     0.111683000000000    -0.052030000000000
    -0.016654139672193    -0.035920603977361    -0.048737564304527
   2  18
    -0.660451237216229     3.340652641476869    -3.186061300104381
     1.179978500000000    -2.249985500000000     2.654009499999999
    -1.221572340126120     2.751889809927663    -2.307970604426184
   2  19
    -0.027281759956784     0.018569624327787     0.021137641028725
    -0.343054000000000     0.115556000000000     0.046829500000000
    -0.241366129686999     0.057995579924028    -0.048995091719428
   2  20
    -0.586474956050937    -1.197462257629148    -1.200756407008044
    -3.344389000000000    -2.253285500000000    -2.750506999999999
    -3.135409163744598    -2.650772019551807    -2.297893203089594
   2  21
     0.406662556350951     0.239976462511495     0.166316283266030
    -1.101384000000000    -0.795532000000000    -1.172024000000000
    -1.119978469384653    -1.245899407210537    -0.817324720327558
   2  22
    -0.094135382034415     0.149368892856153     0.094186176326152
     0.115135500000000     0.008093000000000    -0.000523500000000
     0.168878564165745     0.032103908066878    -0.004711229611474
   2  23
     0.301411279303408     1.152898621003693    -1.175513299585080
    -0.311622500000000    -0.784087000000000     1.235663000000000
     0.111369941238447     1.183438541723573    -0.832462350747969
   2  24
    -0.168430168391389    -0.126485003637502     0.120360927553831
    -0.135799000000000    -0.004958500000000    -0.035589000000000
     0.037064590452930     0.007062031575706    -0.015652640970971
   2  25
    -6.400600965679216    -1.134502979059516     0.144033769552201
    -1.163619000000000     2.982906500000000    -3.156632000000000
     0.123788599493943    -3.163165289449925     3.054916231063783
   2  26
    -2.200773015688337    -0.078654450667909     0.146222288347486
    -0.084637000000000     1.290340500000000    -0.698760000000000
     0.094165268480628    -0.701099747794316     1.151733220289993
   2  27
     0.175446072168535     0.022751699459308     0.127280223372405
     0.048742500000000    -0.225576000000000     0.005687500000000
     0.152175255079853    -0.001157946571422     0.126983766244886
   2  28
    -0.114721202864346    -0.175556961613333    -0.088350166299095
    -0.181394000000000    -0.444008000000000     0.112634500000000
    -0.030744717524694     0.117608832352715     0.409283975032884
   2  29
     0.047196002081601    -0.048002941912926    -0.015931647488008
    -0.061023000000000     0.023601500000000     0.010896500000000
     0.014209503973938     0.005772869101195    -0.189387105553438
   2  30
     0.064791194388446     0.011551866075477    -0.122855429337777
     0.017937000000000     0.418479000000000    -0.166617500000000
    -0.097430339377669    -0.164708095410688    -0.744420841678178
   2  31
     0.318603473726550     0.032117869947519    -0.137703096058202
     0.040129500000000    -0.062738500000000     0.022489500000000
    -0.181976974276936     0.016986844910773    -0.113282601917150
   2  32
    -0.184713674729825    -0.072599693299709    -0.142262256499265
    -0.093242000000000    -0.038983500000000    -0.217448000000000
    -0.151283173796533    -0.221344497118041    -0.084573100080150
   2  33
     0.103303346044504    -0.093828126965193     0.091261106065551
     0.012662500000000    -0.075464500000000     0.094562500000000
    -0.051779269754174     0.031650286068915    -0.110169792646204
   2  34
    -4.191056651566162    -4.744856352805233     4.390931631179225
    -2.472209500000000    -6.057063000000001     4.979152999999999
     1.959906615743059     4.075508777862976    -4.702802874076568
   2  35
     0.013027248828780     0.046280105428345    -0.024823448636413
    -0.002715500000000     0.047625500000000    -0.050636000000000
    -0.029926491190201     0.024089197056398    -0.065160417221576
   2  36
    -0.229979119948251     0.124537551362906     0.062531245325604
    -0.238226000000000     0.637236500000000    -0.219280500000000
    -0.351915416815527     0.580832287634369    -0.162608845565033
   2  37
     0.004248943453818    -0.032751967541654     0.023725502581140
    -0.000749000000000    -0.010437000000000     0.035016000000000
     0.030667719361442     0.017457530751299     0.015178052705397
   2  38
    -0.031658189547887    -0.008126307356123    -0.041536037757062
     0.010873500000000    -0.161826000000000     0.164384500000000
     0.001171255489697    -0.151823165028302     0.213690766174250
   2  39
     0.105267324950540     0.079323282422974    -0.038530322417241
     0.018349500000000     0.011632000000000     0.008813000000000
     0.048873726846618     0.066278405262502    -0.042276946496614
   2  40
    -0.043448517422379     0.159154741089810    -0.130386959716339
    -0.055555500000000     0.189391000000000    -0.146313000000000
     0.062070165285385    -0.078797914407767     0.142899620059542
   2  41
    -0.011019639893948    -0.068214080850049    -0.051888552563363
    -0.016081500000000     0.032669000000000     0.014984500000000
    -0.013375629519830     0.024694808832132     0.023116996669773
   2  42
    -1.086118416729748     0.716413571860879     0.949510320048933
     0.666134500000000     0.697545000000000     1.377627500000000
     0.943326641785390     1.244849317733326     0.432198136157604
   2  43
     0.017537980551735     0.003402983227788    -0.042529964449216
    -0.010414500000000    -0.039568500000000    -0.020991000000000
    -0.013638489992853     0.007267705402653    -0.025269163246101
   2  44
    -0.475201406977969    -0.031025487713010    -0.088823593837098
     0.004368000000000    -0.190374000000000    -0.432895000000000
    -0.112896358116509     0.037387037317402     0.238701297194608
   2  45
     0.261951640571783    -0.203161891795767     0.171904020535656
    -0.283909000000000     0.121366000000000    -0.187420000000000
     0.276877146149759    -0.199840593074948     0.116689999916349
   2  46
     0.097892579031328     0.050603361627201    -0.083251689426581
     0.169547500000000     0.066445500000000    -0.112548000000000
    -0.073153955235712    -0.124537903735270     0.010392483250632
   2  47
    -0.016966711282432     0.110414504574483     0.158550887918253
     0.363434000000000     0.062081000000000     0.264597000000000