 120
   1   1
    12.355846836873001    -1.492669707580600     0.000000000000000
    -1.492669707580600    12.355846836873001     0.000000000000000
     0.000000000000000     0.000000000000000     9.069161366762421
   1   2
     0.000000000000000     0.000000000000000     0.000000000000000
     0.000000000000000     0.000000000000000     0.000000000000000
     0.000000000000000     0.000000000000000     0.000000000000000
   1   3
     0.000000000000000     0.000000000000000     0.000000000000000
     0.000000000000000     0.000000000000000     0.000000000000000
     0.000000000000000     0.000000000000000     0.000000000000000
   1   4
     0.000000000000000     0.000000000000000     0.000000000000000
     0.000000000000000     0.000000000000000     0.000000000000000
     0.000000000000000     0.000000000000000     0.000000000000000
   1   5
     2.342995841329240     0.000000000000000     0.000000000000000
     0.000000000000000     2.342995841329240     0.000000000000000
     0.000000000000000     0.000000000000000    -3.575683862606260
   1   6
     0.000000000000000     0.000000000000000     0.000000000000000
     0.000000000000000     0.000000000000000     0.000000000000000
     0.000000000000000     0.000000000000000     0.000000000000000
   1   7
     0.000000000000000     0.000000000000000     0.000000000000000
     0.000000000000000     0.000000000000000     0.000000000000000
     0.000000000000000     0.000000000000000     0.000000000000000
   1   8
     0.000000000000000     0.000000000000000     0.000000000000000
     0.000000000000000     0.000000000000000     0.000000000000000
     0.000000000000000     0.000000000000000     0.000000000000000
   1   9
     0.000000000000000     0.000000000000000     0.000000000000000
     0.000000000000000     0.000000000000000     0.000000000000000
     0.000000000000000     0.000000000000000     0.000000000000000
   1  10
     0.000000000000000     0.000000000000000     0.000000000000000
     0.000000000000000     0.000000000000000     0.000000000000000
     0.000000000000000     0.000000000000000     0.000000000000000
   1  11
     0.000000000000000     0.000000000000000     0.000000000000000
     0.000000000000000     0.000000000000000     0.000000000000000
     0.000000000000000     0.000000000000000     0.000000000000000
   1  12
     0.000000000000000     0.000000000000000     0.000000000000000
     0.000000000000000     0.000000000000000     0.000000000000000
     0.000000000000000     0.000000000000000     0.000000000000000
   1  13
     0.000000000000000     0.000000000000000     0.000000000000000
     0.000000000000000     0.000000000000000     0.000000000000000
     0.000000000000000     0.000000000000000     0.000000000000000
   1  14
     0.000000000000000     0.000000000000000     0.000000000000000
     0.000000000000000     0.000000000000000     0.000000000000000
     0.000000000000000     0.000000000000000     0.000000000000000
   1  15
     0.000000000000000     0.000000000000000     0.000000000000000
     0.000000000000000     0.000000000000000     0.000000000000000
     0.000000000000000     0.000000000000000     0.000000000000000
   1  16
     0.000000000000000     0.000000000000000     0.000000000000000
     0.000000000000000     0.000000000000000     0.000000000000000
     0.000000000000000     0.000000000000000     0.000000000000000
   1  17
     2.342995841329240     0.000000000000000     0.000000000000000
     0.000000000000000     2.342995841329240     0.000000000000000
     0.000000000000000     0.000000000000000    -3.575683862606260
   1  18
     0.000000000000000     0.000000000000000     0.000000000000000
     0.000000000000000     0.000000000000000     0.000000000000000
     0.000000000000000     0.000000000000000     0.000000000000000
   1  19
     0.000000000000000     0.000000000000000     0.000000000000000
     0.000000000000000     0.000000000000000     0.000000000000000
     0.000000000000000     0.000000000000000     0.000000000000000
   1  20
     0.000000000000000     0.000000000000000     0.000000000000000
     0.000000000000000     0.000000000000000     0.000000000000000
     0.000000000000000     0.000000000000000     0.000000000000000
   1  21
    -1.248839354086040    -1.525933888926870    -0.981159293669882
    -1.525933888926870    -1.248839354086040    -0.981159293669882
    -0.981159293669882    -0.981159293669882    -0.054166618310139
   1  22
    -1.248839354086040     1.525933888926870     0.981159293669882
     1.525933888926870    -1.248839354086040    -0.981159293669882
     0.981159293669882    -0.981159293669882    -0.054166618310139
   1  23
    -1.248839354086040     1.525933888926870    -0.981159293669882
     1.525933888926870    -1.248839354086040     0.981159293669882
    -0.981159293669882     0.981159293669882    -0.054166618310139
   1  24
    -1.248839354086040    -1.525933888926870     0.981159293669882
    -1.525933888926870    -1.248839354086040     0.981159293669882
     0.981159293669882     0.981159293669882    -0.054166618310139
   1  25
     0.000000000000000     0.000000000000000     0.000000000000000
     0.000000000000000     0.000000000000000     0.000000000000000
     0.000000000000000     0.000000000000000     0.000000000000000
   1  26
     0.000000000000000     0.000000000000000     0.000000000000000
     0.000000000000000     0.000000000000000     0.000000000000000
     0.000000000000000     0.000000000000000     0.000000000000000
   1  27
     0.000000000000000     0.000000000000000     0.000000000000000
     0.000000000000000     0.000000000000000     0.000000000000000
     0.000000000000000     0.000000000000000     0.000000000000000
   1  28
     0.000000000000000     0.000000000000000     0.000000000000000
     0.000000000000000     0.000000000000000     0.000000000000000
     0.000000000000000     0.000000000000000     0.000000000000000
   1  29
     0.000000000000000     0.000000000000000     0.000000000000000
     0.000000000000000     0.000000000000000     0.000000000000000
     0.000000000000000     0.000000000000000     0.000000000000000
   1  30
     0.000000000000000     0.000000000000000     0.000000000000000
     0.000000000000000     0.000000000000000     0.000000000000000
     0.000000000000000     0.000000000000000     0.000000000000000
   1  31
     0.000000000000000     0.000000000000000     0.000000000000000
     0.000000000000000     0.000000000000000     0.000000000000000
     0.000000000000000     0.000000000000000     0.000000000000000
   1  32
     0.000000000000000     0.000000000000000     0.000000000000000
     0.000000000000000     0.000000000000000     0.000000000000000
     0.000000000000000     0.000000000000000     0.000000000000000
   1  33
     0.000000000000000     0.000000000000000     0.000000000000000
     0.000000000000000     0.000000000000000     0.000000000000000
     0.000000000000000     0.000000000000000     0.000000000000000
   1  34
     0.000000000000000     0.000000000000000     0.000000000000000
     0.000000000000000     0.000000000000000     0.000000000000000
     0.000000000000000     0.000000000000000     0.000000000000000
   1  35
     0.000000000000000     0.000000000000000     0.000000000000000
     0.000000000000000     0.000000000000000     0.000000000000000
     0.000000000000000     0.000000000000000     0.000000000000000
   1  36
     0.000000000000000     0.000000000000000     0.000000000000000
     0.000000000000000     0.000000000000000     0.000000000000000
     0.000000000000000     0.000000000000000     0.000000000000000
   1  37
    -1.248839354086040    -1.525933888926870     0.981159293669882
    -1.525933888926870    -1.248839354086040     0.981159293669882
     0.981159293669882     0.981159293669882    -0.054166618310139
   1  38
    -1.248839354086040     1.525933888926870    -0.981159293669882
     1.525933888926870    -1.248839354086040     0.981159293669882
    -0.981159293669882     0.981159293669882    -0.054166618310139
   1  39
    -1.248839354086040     1.525933888926870     0.981159293669882
     1.525933888926870    -1.248839354086040    -0.981159293669882
     0.981159293669882    -0.981159293669882    -0.054166618310139
   1  40
    -1.248839354086040    -1.525933888926870    -0.981159293669882
    -1.525933888926870    -1.248839354086040    -0.981159293669882
    -0.981159293669882    -0.981159293669882    -0.054166618310139
   1  41
    -0.863562442608854     0.274724284356160     0.000000000000000
     0.274724284356160    -0.863562442608854     0.000000000000000
     0.000000000000000     0.000000000000000    -0.189597744594308
   1  42
     0.067922773877592    -0.343888502953894     0.000000000000000
     0.004252995251533     0.284672323760664     0.000000000000000
     0.000000000000000     0.000000000000000    -0.236169986243952
   1  43
     0.284672323760664     0.004252995251533     0.000000000000000
    -0.343888502953894     0.067922773877592     0.000000000000000
     0.000000000000000     0.000000000000000    -0.236169986243952
   1  44
     0.000000000000000     0.000000000000000     0.000000000000000
     0.000000000000000     0.000000000000000     0.000000000000000
     0.000000000000000     0.000000000000000     0.000000000000000
   1  45
    -0.116875741815732    -0.027708292098841     0.157142660964133
    -0.027708292098841    -0.116875741815732     0.157142660964133
     0.206633815311846     0.206633815311846     0.325811431852638
   1  46
     0.093673812393277    -0.118958040961699     0.019984062416449
    -0.156887535137545     0.079816660603897     0.120420776724165
    -0.148638045882187     0.006801621873845     0.120842089568340
   1  47
     0.079816660603897    -0.156887535137545     0.120420776724165
    -0.118958040961699     0.093673812393277     0.019984062416449
     0.006801621873845    -0.148638045882187     0.120842089568340
   1  48
     0.000000000000000     0.000000000000000     0.000000000000000
     0.000000000000000     0.000000000000000     0.000000000000000
     0.000000000000000     0.000000000000000     0.000000000000000
   1  49
     0.000000000000000     0.000000000000000     0.000000000000000
     0.000000000000000     0.000000000000000     0.000000000000000
     0.000000000000000     0.000000000000000     0.000000000000000
   1  50
     0.000000000000000     0.000000000000000     0.000000000000000
     0.000000000000000     0.000000000000000     0.000000000000000
     0.000000000000000     0.000000000000000     0.000000000000000
   1  51
     0.000000000000000     0.000000000000000     0.000000000000000
     0.000000000000000     0.000000000000000     0.000000000000000
     0.000000000000000     0.000000000000000     0.000000000000000
   1  52
     0.000000000000000     0.000000000000000     0.000000000000000
     0.000000000000000     0.000000000000000     0.000000000000000
     0.000000000000000     0.000000000000000     0.000000000000000
   1  53
     0.000000000000000     0.000000000000000     0.000000000000000
     0.000000000000000     0.000000000000000     0.000000000000000
     0.000000000000000     0.000000000000000     0.000000000000000
   1  54
     0.000000000000000     0.000000000000000     0.000000000000000
     0.000000000000000     0.000000000000000     0.000000000000000
     0.000000000000000     0.000000000000000     0.000000000000000
   1  55
     0.000000000000000     0.000000000000000     0.000000000000000
     0.000000000000000     0.000000000000000     0.000000000000000
     0.000000000000000     0.000000000000000     0.000000000000000
   1  56
     0.000000000000000     0.000000000000000     0.000000000000000
     0.000000000000000     0.000000000000000     0.000000000000000
     0.000000000000000     0.000000000000000     0.000000000000000
   1  57
    -0.116875741815732    -0.027708292098841    -0.157142660964133
    -0.027708292098841    -0.116875741815732    -0.157142660964133
    -0.206633815311846    -0.206633815311846     0.325811431852638
   1  58
     0.093673812393277    -0.118958040961699    -0.019984062416449
    -0.156887535137545     0.079816660603897    -0.120420776724165
     0.148638045882187    -0.006801621873845     0.120842089568340
   1  59
     0.079816660603897    -0.156887535137545    -0.120420776724165
    -0.118958040961699     0.093673812393277    -0.019984062416449
    -0.006801621873845     0.148638045882187     0.120842089568340
   1  60
     0.000000000000000     0.000000000000000     0.000000000000000
     0.000000000000000     0.000000000000000     0.000000000000000
     0.000000000000000     0.000000000000000     0.000000000000000
   1  61
     0.000000000000000     0.000000000000000     0.000000000000000
     0.000000000000000     0.000000000000000     0.000000000000000
     0.000000000000000     0.000000000000000     0.000000000000000
   1  62
     0.284672323760664     0.004252995251533     0.000000000000000
    -0.343888502953894     0.067922773877592     0.000000000000000
     0.000000000000000     0.000000000000000    -0.236169986243952
   1  63
     0.067922773877592    -0.343888502953894     0.000000000000000
     0.004252995251533     0.284672323760664     0.000000000000000
     0.000000000000000     0.000000000000000    -0.236169986243952
   1  64
    -0.863562442608854     0.274724284356160     0.000000000000000
     0.274724284356160    -0.863562442608854     0.000000000000000
     0.000000000000000     0.000000000000000    -0.189597744594308
   1  65
     0.000000000000000     0.000000000000000     0.000000000000000
     0.000000000000000     0.000000000000000     0.000000000000000
     0.000000000000000     0.000000000000000     0.000000000000000
   1  66
     0.079816660603897    -0.156887535137545    -0.120420776724165
    -0.118958040961699     0.093673812393277    -0.019984062416449
    -0.006801621873845     0.148638045882187     0.120842089568340
   1  67
     0.093673812393277    -0.118958040961699    -0.019984062416449
    -0.156887535137545     0.079816660603897    -0.120420776724165
     0.148638045882187    -0.006801621873845     0.120842089568340
   1  68
    -0.116875741815732    -0.027708292098841    -0.157142660964133
    -0.027708292098841    -0.116875741815732    -0.157142660964133
    -0.206633815311846    -0.206633815311846     0.325811431852638
   1  69
     0.000000000000000     0.000000000000000     0.000000000000000
     0.000000000000000     0.000000000000000     0.000000000000000
     0.000000000000000     0.000000000000000     0.000000000000000
   1  70
     0.000000000000000     0.000000000000000     0.000000000000000
     0.000000000000000     0.000000000000000     0.000000000000000
     0.000000000000000     0.000000000000000     0.000000000000000
   1  71
     0.000000000000000     0.000000000000000     0.000000000000000
     0.000000000000000     0.000000000000000     0.000000000000000
     0.000000000000000     0.000000000000000     0.000000000000000
   1  72
     0.000000000000000     0.000000000000000     0.000000000000000
     0.000000000000000     0.000000000000000     0.000000000000000
     0.000000000000000     0.000000000000000     0.000000000000000
   1  73
     0.000000000000000     0.000000000000000     0.000000000000000
     0.000000000000000     0.000000000000000     0.000000000000000
     0.000000000000000     0.000000000000000     0.000000000000000
   1  74
     0.000000000000000     0.000000000000000     0.000000000000000
     0.000000000000000     0.000000000000000     0.000000000000000
     0.000000000000000     0.000000000000000     0.000000000000000
   1  75
     0.000000000000000     0.000000000000000     0.000000000000000
     0.000000000000000     0.000000000000000     0.000000000000000
     0.000000000000000     0.000000000000000     0.000000000000000
   1  76
     0.000000000000000     0.000000000000000     0.000000000000000
     0.000000000000000     0.000000000000000     0.000000000000000
     0.000000000000000     0.000000000000000     0.000000000000000
   1  77
     0.000000000000000     0.000000000000000     0.000000000000000
     0.000000000000000     0.000000000000000     0.000000000000000
     0.000000000000000     0.000000000000000     0.000000000000000
   1  78
     0.079816660603897    -0.156887535137545     0.120420776724165
    -0.118958040961699     0.093673812393277     0.019984062416449
     0.006801621873845    -0.148638045882187     0.120842089568340
   1  79
     0.093673812393277    -0.118958040961699     0.019984062416449
    -0.156887535137545     0.079816660603897     0.120420776724165
    -0.148638045882187     0.006801621873845     0.120842089568340
   1  80
    -0.116875741815732    -0.027708292098841     0.157142660964133
    -0.027708292098841    -0.116875741815732     0.157142660964133
     0.206633815311846     0.206633815311846     0.325811431852638
   1  81
     0.031023821395925     0.185560788646161     0.061217375248165
     0.007501353664099     0.125334687084975     0.174607918299176
     0.104442168499032     0.022861116615186    -0.031633217851614
   1  82
     0.000000000000000     0.000000000000000     0.000000000000000
     0.000000000000000     0.000000000000000     0.000000000000000
     0.000000000000000     0.000000000000000     0.000000000000000
   1  83
    -1.623200629559400     0.562652359562777    -0.136256582180428
     0.562652359562777    -1.623200629559400     0.136256582180428
    -1.920383880410350     1.920383880410350    -0.260459427463838
   1  84
     0.125334687084975     0.007501353664099    -0.174607918299176
     0.185560788646161     0.031023821395925    -0.061217375248165
    -0.022861116615186    -0.104442168499032    -0.031633217851614
   1  85
     0.000000000000000     0.000000000000000     0.000000000000000
     0.000000000000000     0.000000000000000     0.000000000000000
     0.000000000000000     0.000000000000000     0.000000000000000
   1  86
     0.000000000000000     0.000000000000000     0.000000000000000
     0.000000000000000     0.000000000000000     0.000000000000000
     0.000000000000000     0.000000000000000     0.000000000000000
   1  87
    -0.097069859328436    -0.046537595106701    -0.017569789421888
    -0.046537595106701    -0.097069859328436     0.017569789421888
    -0.157644828792324     0.157644828792324    -0.283916063048341
   1  88
     0.000000000000000     0.000000000000000     0.000000000000000
     0.000000000000000     0.000000000000000     0.000000000000000
     0.000000000000000     0.000000000000000     0.000000000000000
   1  89
     0.000000000000000     0.000000000000000     0.000000000000000
     0.000000000000000     0.000000000000000     0.000000000000000
     0.000000000000000     0.000000000000000     0.000000000000000
   1  90
     0.000000000000000     0.000000000000000     0.000000000000000
     0.000000000000000     0.000000000000000     0.000000000000000
     0.000000000000000     0.000000000000000     0.000000000000000
   1  91
     0.000000000000000     0.000000000000000     0.000000000000000
     0.000000000000000     0.000000000000000     0.000000000000000
     0.000000000000000     0.000000000000000     0.000000000000000
   1  92
     0.000000000000000     0.000000000000000     0.000000000000000
     0.000000000000000     0.000000000000000     0.000000000000000
     0.000000000000000     0.000000000000000     0.000000000000000
   1  93
     0.000000000000000     0.000000000000000     0.000000000000000
     0.000000000000000     0.000000000000000     0.000000000000000
     0.000000000000000     0.000000000000000     0.000000000000000
   1  94
     0.000000000000000     0.000000000000000     0.000000000000000
     0.000000000000000     0.000000000000000     0.000000000000000
     0.000000000000000     0.000000000000000     0.000000000000000
   1  95
    -0.097069859328436    -0.046537595106701     0.017569789421888
    -0.046537595106701    -0.097069859328436    -0.017569789421888
     0.157644828792324    -0.157644828792324    -0.283916063048341
   1  96
     0.000000000000000     0.000000000000000     0.000000000000000
     0.000000000000000     0.000000000000000     0.000000000000000
     0.000000000000000     0.000000000000000     0.000000000000000
   1  97
     0.031023821395925     0.185560788646161    -0.061217375248165
     0.007501353664099     0.125334687084975    -0.174607918299176
    -0.104442168499032    -0.022861116615186    -0.031633217851614
   1  98
     0.000000000000000     0.000000000000000     0.000000000000000
     0.000000000000000     0.000000000000000     0.000000000000000
     0.000000000000000     0.000000000000000     0.000000000000000
   1  99
    -1.623200629559400     0.562652359562777     0.136256582180428
     0.562652359562777    -1.623200629559400    -0.136256582180428
     1.920383880410350    -1.920383880410350    -0.260459427463838
   1 100
     0.125334687084975     0.007501353664099     0.174607918299176
     0.185560788646161     0.031023821395925     0.061217375248165
     0.022861116615186     0.104442168499032    -0.031633217851614
   1 101
     0.125334687084975     0.007501353664099     0.174607918299176
     0.185560788646161     0.031023821395925     0.061217375248165
     0.022861116615186     0.104442168499032    -0.031633217851614
   1 102
    -1.623200629559400     0.562652359562777     0.136256582180428
     0.562652359562777    -1.623200629559400    -0.136256582180428
     1.920383880410350    -1.920383880410350    -0.260459427463838
   1 103
     0.000000000000000     0.000000000000000     0.000000000000000
     0.000000000000000     0.000000000000000     0.000000000000000
     0.000000000000000     0.000000000000000     0.000000000000000
   1 104
     0.031023821395925     0.185560788646161    -0.061217375248165
     0.007501353664099     0.125334687084975    -0.174607918299176
    -0.104442168499032    -0.022861116615186    -0.031633217851614
   1 105
     0.000000000000000     0.000000000000000     0.000000000000000
     0.000000000000000     0.000000000000000     0.000000000000000
     0.000000000000000     0.000000000000000     0.000000000000000
   1 106
    -0.097069859328436    -0.046537595106701     0.017569789421888
    -0.046537595106701    -0.097069859328436    -0.017569789421888
     0.157644828792324    -0.157644828792324    -0.283916063048341
   1 107
     0.000000000000000     0.000000000000000     0.000000000000000
     0.000000000000000     0.000000000000000     0.000000000000000
     0.000000000000000     0.000000000000000     0.000000000000000
   1 108
     0.000000000000000     0.000000000000000     0.000000000000000
     0.000000000000000     0.000000000000000     0.000000000000000
     0.000000000000000     0.000000000000000     0.000000000000000
   1 109
     0.000000000000000     0.000000000000000     0.000000000000000
     0.000000000000000     0.000000000000000     0.000000000000000
     0.000000000000000     0.000000000000000     0.000000000000000
   1 110
     0.000000000000000     0.000000000000000     0.000000000000000
     0.000000000000000     0.000000000000000     0.000000000000000
     0.000000000000000     0.000000000000000     0.000000000000000
   1 111
     0.000000000000000     0.000000000000000     0.000000000000000
     0.000000000000000     0.000000000000000     0.000000000000000
     0.000000000000000     0.000000000000000     0.000000000000000
   1 112
     0.000000000000000     0.000000000000000     0.000000000000000
     0.000000000000000     0.000000000000000     0.000000000000000
     0.000000000000000     0.000000000000000     0.000000000000000
   1 113
     0.000000000000000     0.000000000000000     0.000000000000000
     0.000000000000000     0.000000000000000     0.000000000000000
     0.000000000000000     0.000000000000000     0.000000000000000
   1 114
    -0.097069859328436    -0.046537595106701    -0.017569789421888
    -0.046537595106701    -0.097069859328436     0.017569789421888
    -0.157644828792324     0.157644828792324    -0.283916063048341
   1 115
     0.000000000000000     0.000000000000000     0.000000000000000
     0.000000000000000     0.000000000000000     0.000000000000000
     0.000000000000000     0.000000000000000     0.000000000000000
   1 116
     0.000000000000000     0.000000000000000     0.000000000000000
     0.000000000000000     0.000000000000000     0.000000000000000
     0.000000000000000     0.000000000000000     0.000000000000000
   1 117
     0.125334687084975     0.007501353664099    -0.174607918299176
     0.185560788646161     0.031023821395925    -0.061217375248165
    -0.022861116615186    -0.104442168499032    -0.031633217851614
   1 118
    -1.623200629559400     0.562652359562777    -0.136256582180428
     0.562652359562777    -1.623200629559400     0.136256582180428
    -1.920383880410350     1.920383880410350    -0.260459427463838
   1 119
     0.000000000000000     0.000000000000000     0.000000000000000
     0.000000000000000     0.000000000000000     0.000000000000000
     0.000000000000000     0.000000000000000     0.000000000000000
   1 120
     0.031023821395925     0.185560788646161     0.061217375248165
     0.007501353664099     0.125334687084975     0.174607918299176
     0.104442168499032     0.022861116615186    -0.031633217851614
   2   1
     0.000000000000000     0.000000000000000     0.000000000000000
     0.000000000000000     0.000000000000000     0.000000000000000
     0.000000000000000     0.000000000000000     0.000000000000000
   2   2
    12.355846836873001    -1.492669707580600     0.000000000000000
    -1.492669707580600    12.355846836873001     0.000000000000000
     0.000000000000000     0.000000000000000     9.069161366762421
   2   3
     0.000000000000000     0.000000000000000     0.000000000000000
     0.000000000000000     0.000000000000000     0.000000000000000
     0.000000000000000     0.000000000000000     0.000000000000000
   2   4
     0.000000000000000     0.000000000000000     0.000000000000000
     0.000000000000000     0.000000000000000     0.000000000000000
     0.000000000000000     0.000000000000000     0.000000000000000
   2   5
     0.000000000000000     0.000000000000000     0.000000000000000
     0.000000000000000     0.000000000000000     0.000000000000000
     0.000000000000000     0.000000000000000     0.000000000000000
   2   6
     2.342995841329240     0.000000000000000     0.000000000000000
     0.000000000000000     2.342995841329240     0.000000000000000
     0.000000000000000     0.000000000000000    -3.575683862606260
   2   7
     0.000000000000000     0.000000000000000     0.000000000000000
     0.000000000000000     0.000000000000000     0.000000000000000
     0.000000000000000     0.000000000000000     0.000000000000000
   2   8
     0.000000000000000     0.000000000000000     0.000000000000000
     0.000000000000000     0.000000000000000     0.000000000000000
     0.000000000000000     0.000000000000000     0.000000000000000
   2   9
     0.000000000000000     0.000000000000000     0.000000000000000
     0.000000000000000     0.000000000000000     0.000000000000000
     0.000000000000000     0.000000000000000     0.000000000000000
   2  10
     0.000000000000000     0.000000000000000     0.000000000000000
     0.000000000000000     0.000000000000000     0.000000000000000
     0.000000000000000     0.000000000000000     0.000000000000000
   2  11
     0.000000000000000     0.000000000000000     0.000000000000000
     0.000000000000000     0.000000000000000     0.000000000000000
     0.000000000000000     0.000000000000000     0.000000000000000
   2  12
     0.000000000000000     0.000000000000000     0.000000000000000
     0.000000000000000     0.000000000000000     0.000000000000000
     0.000000000000000     0.000000000000000     0.000000000000000
   2  13
     0.000000000000000     0.000000000000000     0.000000000000000
     0.000000000000000     0.000000000000000     0.000000000000000
     0.000000000000000     0.000000000000000     0.000000000000000
   2  14
     0.000000000000000     0.000000000000000     0.000000000000000
     0.000000000000000     0.000000000000000     0.000000000000000
     0.000000000000000     0.000000000000000     0.000000000000000
   2  15
     0.000000000000000     0.000000000000000     0.000000000000000
     0.000000000000000     0.000000000000000     0.000000000000000
     0.000000000000000     0.000000000000000     0.000000000000000
   2  16
     0.000000000000000     0.000000000000000     0.000000000000000
     0.000000000000000     0.000000000000000     0.000000000000000
     0.000000000000000     0.000000000000000     0.000000000000000
   2  17
     0.000000000000000     0.000000000000000     0.000000000000000
     0.000000000000000     0.000000000000000     0.000000000000000
     0.000000000000000     0.000000000000000     0.000000000000000
   2  18
     2.342995841329240     0.000000000000000     0.000000000000000
     0.000000000000000     2.342995841329240     0.000000000000000
     0.000000000000000     0.000000000000000    -3.575683862606260
   2  19
     0.000000000000000     0.000000000000000     0.000000000000000
     0.000000000000000     0.000000000000000     0.000000000000000
     0.000000000000000     0.000000000000000     0.000000000000000
   2  20
     0.000000000000000     0.000000000000000     0.000000000000000
     0.000000000000000     0.000000000000000     0.000000000000000
     0.000000000000000     0.000000000000000     0.000000000000000
   2  21
    -1.248839354086040     1.525933888926870     0.981159293669882
     1.525933888926870    -1.248839354086040    -0.981159293669882
     0.981159293669882    -0.981159293669882    -0.054166618310139
   2  22
    -1.248839354086040    -1.525933888926870    -0.981159293669882
    -1.525933888926870    -1.248839354086040    -0.981159293669882
    -0.981159293669882    -0.981159293669882    -0.054166618310139
   2  23
    -1.248839354086040    -1.525933888926870     0.981159293669882
    -1.525933888926870    -1.248839354086040     0.981159293669882